 Gaussian 09, Revision D.01,
 Gaussian 09:  EM64L-G09RevD.01 24-Apr-2013

 ----------------------------------------------------------------------
 #p pbe1pbe def2svp opt freq pop(hirshfeld) density=current iop(7/33=1)
  iop(6/80=1)
 ----------------------------------------------------------------------

 ------------------
 -- F3B...NH2CHO --
 ------------------
 Symbolic Z-matrix:
 Charge =  0 Multiplicity = 1

 SCF Done:  E(RPBE1PBE) =  -493.586453941     A.U. after   13 cycles
 SCF Done:  E(RPBE1PBE) =  -493.586767212     A.U. after   12 cycles
 SCF Done:  E(RPBE1PBE) =  -493.586710142     A.U. after   11 cycles
 SCF Done:  E(RPBE1PBE) =  -493.586847296     A.U. after    8 cycles
 SCF Done:  E(RPBE1PBE) =  -493.586923108     A.U. after   11 cycles
 SCF Done:  E(RPBE1PBE) =  -493.586985288     A.U. after   12 cycles
 SCF Done:  E(RPBE1PBE) =  -493.587015621     A.U. after   12 cycles
 SCF Done:  E(RPBE1PBE) =  -493.587023107     A.U. after   12 cycles
 SCF Done:  E(RPBE1PBE) =  -493.587029770     A.U. after   11 cycles
 SCF Done:  E(RPBE1PBE) =  -493.587032196     A.U. after   11 cycles
 SCF Done:  E(RPBE1PBE) =  -493.587031918     A.U. after    7 cycles
 SCF Done:  E(RPBE1PBE) =  -493.587031715     A.U. after    7 cycles
 SCF Done:  E(RPBE1PBE) =  -493.587031465     A.U. after    7 cycles
 SCF Done:  E(RPBE1PBE) =  -493.587031280     A.U. after    8 cycles
 Optimization completed.
    -- Stationary point found.
 Normal termination of Gaussian 09 at Wed Mar 18 14:20:33 2015.

 ----------------------------------------------------------------------
 #P Geom=AllCheck Guess=TCheck SCRF=Check Test GenChk RPBE1PBE/def2SVP
 Freq
 ----------------------------------------------------------------------

 Structure from the checkpoint file:  "g09-f3bnh2cho.chk"
 ------------------
 -- F3B...NH2CHO --
 ------------------
 Charge =  0 Multiplicity = 1

                         Standard orientation:
 ---------------------------------------------------------------------
 Center     Atomic      Atomic             Coordinates (Angstroms)
 Number     Number       Type             X           Y           Z
 ---------------------------------------------------------------------
      1          9           0       -1.801931    0.205848   -0.963439
      2          5           0       -0.948328    0.091585    0.080311
      3          9           0       -0.567365    1.246405    0.669103
      4          9           0       -1.190104   -0.944152    0.926488
      5          6           0        1.665302   -0.383648    0.146003
      6          8           0        2.561108    0.374229   -0.042398
      7          7           0        0.534334   -0.471246   -0.728944
      8          1           0        1.574216   -1.068010    1.016506
      9          1           0        0.293332   -1.436722   -0.964940
     10          1           0        0.687672    0.080679   -1.576717
 ---------------------------------------------------------------------

 SCF Done:  E(RPBE1PBE) =  -493.587031280     A.U. after    1 cycles

 The electronic state is 1-A.
 Alpha  occ. eigenvalues --  -24.74929 -24.74819 -24.74687 -19.26118 -14.49715
 Alpha  occ. eigenvalues --  -10.39864  -6.91011  -1.22427  -1.18140  -1.18068
 Alpha  occ. eigenvalues --   -1.13648  -0.99934  -0.69472  -0.62606  -0.59077
 Alpha  occ. eigenvalues --   -0.55638  -0.54361  -0.52703  -0.52565  -0.49885
 Alpha  occ. eigenvalues --   -0.45853  -0.43425  -0.43330  -0.41418  -0.41259
 Alpha  occ. eigenvalues --   -0.38867  -0.38661  -0.33706
 Alpha virt. eigenvalues --   -0.05555   0.03121   0.06300   0.09783   0.16528
 Alpha virt. eigenvalues --    0.18199   0.20955   0.22893   0.24226   0.25244
 Alpha virt. eigenvalues --    0.32000   0.41569   0.43817   0.45473   0.46104

 Mulliken charges:
               1
     1  F   -0.185242
     2  B    0.273519
     3  F   -0.180776
     4  F   -0.201533
     5  C    0.200568
     6  O   -0.174891
     7  N   -0.181811
     8  H    0.078215
     9  H    0.189245
    10  H    0.182705
 Sum of Mulliken charges =   0.00000

 Dipole moment (field-independent basis, Debye):
    X=              2.3654    Y=             -3.1054    Z=             -2.2268  Tot=              4.4942
 Quadrupole moment (field-independent basis, Debye-Ang):
   XX=            -46.1250   YY=            -36.7218   ZZ=            -35.2038
   XY=             -3.9384   XZ=             -0.8264   YZ=              1.1329

  Exact polarizability:  37.075   3.491  28.835   1.604  -1.908  28.659
 Approx polarizability:  48.059   9.123  40.457   1.787  -2.944  36.346

                      1                      2                      3
                      A                      A                      A
 Frequencies --     30.4589               108.0891               155.7192
 Red. masses --      4.9589                10.1548                 3.2377
 Frc consts  --      0.0027                 0.0699                 0.0463
 IR Inten    --      9.3804                 7.4327                 2.6711

                      4                      5                      6
                      A                      A                      A
 Frequencies --    262.2756               273.1450               369.7039
 Red. masses --      8.6392                 4.9310                 5.0596
 Frc consts  --      0.3501                 0.2168                 0.4075
 IR Inten    --      2.7864                22.9241                65.1274

                      7                      8                      9
                      A                      A                      A
 Frequencies --    458.0318               491.7582               563.2905
 Red. masses --      8.2306                10.7491                 2.2088
 Frc consts  --      1.0174                 1.5315                 0.4129
 IR Inten    --      4.9567                23.7692                10.6587

                     10                     11                     12
                      A                      A                      A
 Frequencies --    618.1549               787.9305               854.9688
 Red. masses --     11.7484                 2.0278                 6.4782
 Frc consts  --      2.6450                 0.7417                 2.7900
 IR Inten    --    338.1170                32.2619               205.8431

                     13                     14                     15
                      A                      A                      A
 Frequencies --    955.6668              1055.2592              1103.6872
 Red. masses --      1.2747                 2.2884                 1.6403
 Frc consts  --      0.6859                 1.5014                 1.1773
 IR Inten    --     35.9245                70.4537                45.3225

                     16                     17                     18
                      A                      A                      A
 Frequencies --   1213.7476              1318.5994              1339.5542
 Red. masses --      1.8462                 7.2350                 9.0194
 Frc consts  --      1.6024                 7.4117                 9.5356
 IR Inten    --     50.5261               311.4432               358.6486

                     19                     20                     21
                      A                      A                      A
 Frequencies --   1404.4463              1574.7015              1935.0766
 Red. masses --      1.1643                 1.1395                 8.7712
 Frc consts  --      1.3531                 1.6647                19.3511
 IR Inten    --     14.6794                75.6976               233.5404

                     22                     23                     24
                      A                      A                      A
 Frequencies --   3062.5408              3497.7732              3600.0857
 Red. masses --      1.0968                 1.0500                 1.0982
 Frc consts  --      6.0607                 7.5686                 8.3859
 IR Inten    --     22.9355                52.0482                79.0487

 - Thermochemistry -
 -------------------
 Temperature   298.150 Kelvin.  Pressure   1.00000 Atm.
 Atom     1 has atomic number  9 and mass  18.99840

 Molecular mass:   113.02598 amu.
 Principal axes and moments of inertia in atomic units:
                           1         2         3
     Eigenvalues --   400.963901085.826861096.73015
           X            0.99994  -0.01112  -0.00213
           Y            0.01131   0.98813   0.15319
           Z            0.00040  -0.15321   0.98819
 This molecule is an asymmetric top.
 Rotational symmetry number  1.
 Rotational temperatures (Kelvin)      0.21601     0.07977     0.07897
 Rotational constants (GHZ):           4.50101     1.66209     1.64557
 Zero-point vibrational energy     161703.2 (Joules/Mol)
                                   38.64799 (Kcal/Mol)
 Warning -- explicit consideration of  10 degrees of freedom as
           vibrations may cause significant error
 Vibrational temperatures:     43.82   155.52   224.04   377.36   392.99
          (Kelvin)            531.92   659.00   707.53   810.45   889.39
                             1133.65  1230.11  1374.99  1518.28  1587.96
                             1746.31  1897.17  1927.32  2020.68  2265.64
                             2784.14  4406.31  5032.51  5179.71

 Zero-point correction=                           0.061589 (Hartree/Particle)
 Thermal correction to Energy=                    0.069026
 Thermal correction to Enthalpy=                  0.069970
 Thermal correction to Gibbs Free Energy=         0.028688
 Sum of electronic and zero-point Energies=           -493.525442
 Sum of electronic and thermal Energies=              -493.518005
 Sum of electronic and thermal Enthalpies=            -493.517061
 Sum of electronic and thermal Free Energies=         -493.558343

                     E (Thermal)             CV                S
                      KCal/Mol        Cal/Mol-Kelvin    Cal/Mol-Kelvin
 Total                   43.314             24.402             86.885
 Electronic               0.000              0.000              0.000
 Translational            0.889              2.981             40.083
 Rotational               0.889              2.981             27.659
 Vibrational             41.537             18.441             19.143
 Vibration     1          0.594              1.984              5.799
 Vibration     2          0.606              1.943              3.303
 Vibration     3          0.620              1.896              2.601
 Vibration     4          0.670              1.742              1.647
 Vibration     5          0.676              1.723              1.576
 Vibration     6          0.742              1.534              1.081
 Vibration     7          0.816              1.343              0.772
 Vibration     8          0.848              1.268              0.679
 Vibration     9          0.919              1.111              0.517
 Vibration    10          0.978              0.994              0.419

 Optimization completed.
    -- Stationary point found.
 Normal termination of Gaussian 09 at Wed Mar 18 14:25:32 2015.
