 Gaussian 09, Revision D.01,
 Gaussian 09:  EM64L-G09RevD.01 24-Apr-2013

 ----------------------------------------------------------------------
 #p pbe1pbe def2svp opt freq pop(hirshfeld) density=current iop(7/33=1)
  iop(6/80=1)
 ----------------------------------------------------------------------

 ------------
 -- Ethane --
 ------------
 Symbolic Z-matrix:
 Charge =  0 Multiplicity = 1

 SCF Done:  E(RPBE1PBE) =  -79.6593607627     A.U. after    9 cycles
 SCF Done:  E(RPBE1PBE) =  -79.6638648950     A.U. after    9 cycles
 SCF Done:  E(RPBE1PBE) =  -79.6640582056     A.U. after    7 cycles
 SCF Done:  E(RPBE1PBE) =  -79.6640690003     A.U. after    6 cycles
 Optimization completed.
    -- Stationary point found.
 Normal termination of Gaussian 09 at Wed Mar 18 11:28:05 2015.

 ----------------------------------------------------------------------
 #P Geom=AllCheck Guess=TCheck SCRF=Check Test GenChk RPBE1PBE/def2SVP
 Freq
 ----------------------------------------------------------------------

 Structure from the checkpoint file:  "g09-ethane.chk"
 ------------
 -- Ethane --
 ------------
 Charge =  0 Multiplicity = 1

                         Standard orientation:
 ---------------------------------------------------------------------
 Center     Atomic      Atomic             Coordinates (Angstroms)
 Number     Number       Type             X           Y           Z
 ---------------------------------------------------------------------
      1          6           0        0.000000    0.000000    0.759629
      2          1           0        0.511892    0.886918    1.165283
      3          1           0        0.512148   -0.886771    1.165283
      4          1           0       -1.024040   -0.000147    1.165283
      5          6           0        0.000000    0.000000   -0.759629
      6          1           0        1.024040   -0.000147   -1.165283
      7          1           0       -0.512148   -0.886771   -1.165283
      8          1           0       -0.511892    0.886918   -1.165283
 ---------------------------------------------------------------------

 SCF Done:  E(RPBE1PBE) =  -79.6640690003     A.U. after    1 cycles

 The electronic state is 1-A1.
 Alpha  occ. eigenvalues --  -10.22245 -10.22236  -0.76563  -0.62270  -0.44372
 Alpha  occ. eigenvalues --   -0.44372  -0.38209  -0.34846  -0.34846
 Alpha virt. eigenvalues --    0.07698   0.12317   0.13645   0.13645   0.17007
 Alpha virt. eigenvalues --    0.17007   0.24730   0.42845   0.42845   0.44218
 Alpha virt. eigenvalues --    0.53968   0.53968   0.63856   0.66242   0.69501

 Mulliken charges:
               1
     1  C   -0.135863
     2  H    0.045288
     3  H    0.045288
     4  H    0.045288
     5  C   -0.135863
     6  H    0.045288
     7  H    0.045288
     8  H    0.045288
 Sum of Mulliken charges =   0.00000

 Dipole moment (field-independent basis, Debye):
    X=              0.0000    Y=              0.0000    Z=              0.0000  Tot=              0.0000
 Quadrupole moment (field-independent basis, Debye-Ang):
   XX=            -14.7650   YY=            -14.7650   ZZ=            -15.3301
   XY=              0.0000   XZ=              0.0000   YZ=              0.0000

  Exact polarizability:  23.202   0.000  23.202   0.000   0.000  25.573
 Approx polarizability:  28.987   0.000  28.987   0.000   0.000  28.939

                      1                      2                      3
                     A1                      E                      E
 Frequencies --    321.4974               820.4452               820.4468
 Red. masses --      1.0078                 1.0590                 1.0590
 Frc consts  --      0.0614                 0.4200                 0.4200
 IR Inten    --      0.0000                 6.4579                 6.4606

                      4                      5                      6
                     A1                      E                      E
 Frequencies --   1037.9479              1203.3360              1203.3374
 Red. masses --      2.8015                 1.4822                 1.4822
 Frc consts  --      1.7782                 1.2645                 1.2645
 IR Inten    --      0.0000                 0.0000                 0.0000

                      7                      8                      9
                     A2                     A1                      E
 Frequencies --   1378.6358              1417.1071              1475.3108
 Red. masses --      1.1966                 1.3342                 1.0146
 Frc consts  --      1.3400                 1.5787                 1.3011
 IR Inten    --      0.7699                 0.0000                 0.0059

                     10                     11                     12
                      E                      E                      E
 Frequencies --   1475.3113              1475.9847              1475.9859
 Red. masses --      1.0146                 1.0597                 1.0597
 Frc consts  --      1.3011                 1.3602                 1.3602
 IR Inten    --      0.0059                10.7887                10.7893

                     13                     14                     15
                     A2                     A1                      E
 Frequencies --   3053.5029              3055.2847              3133.7286
 Red. masses --      1.0353                 1.0402                 1.1033
 Frc consts  --      5.6876                 5.7210                 6.3837
 IR Inten    --     49.4563                 0.0000                 0.0000

                     16                     17                     18
                      E                      E                      E
 Frequencies --   3133.7286              3154.2994              3154.3002
 Red. masses --      1.1033                 1.1039                 1.1039
 Frc consts  --      6.3837                 6.4712                 6.4712
 IR Inten    --      0.0000                42.7623                42.7555

 - Thermochemistry -
 -------------------
 Temperature   298.150 Kelvin.  Pressure   1.00000 Atm.
 Atom     1 has atomic number  6 and mass  12.00000

 Molecular mass:    30.04695 amu.
 Principal axes and moments of inertia in atomic units:
                           1         2         3
     Eigenvalues --    22.64477  90.09981  90.09981
           X            0.00000   0.84753   0.53074
           Y            0.00000  -0.53074   0.84753
           Z            1.00000   0.00000   0.00000
 This molecule is a prolate symmetric top.
 Rotational symmetry number  6.
 Rotational temperatures (Kelvin)      3.82489     0.96131     0.96131
 Rotational constants (GHZ):          79.69792    20.03047    20.03047
 Zero-point vibrational energy     196128.9 (Joules/Mol)
                                   46.87593 (Kcal/Mol)
 Warning -- explicit consideration of   1 degrees of freedom as
           vibrations may cause significant error
 Vibrational temperatures:    462.56  1180.44  1180.44  1493.37  1731.33
          (Kelvin)           1731.33  1983.55  2038.90  2122.64  2122.64
                             2123.61  2123.61  4393.30  4395.87  4508.73
                             4508.73  4538.33  4538.33

 Zero-point correction=                           0.074702 (Hartree/Particle)
 Thermal correction to Energy=                    0.078175
 Thermal correction to Enthalpy=                  0.079119
 Thermal correction to Gibbs Free Energy=         0.053293
 Sum of electronic and zero-point Energies=            -79.589367
 Sum of electronic and thermal Energies=               -79.585894
 Sum of electronic and thermal Enthalpies=             -79.584950
 Sum of electronic and thermal Free Energies=          -79.610776

                     E (Thermal)             CV                S
                      KCal/Mol        Cal/Mol-Kelvin    Cal/Mol-Kelvin
 Total                   49.056             10.113             54.356
 Electronic               0.000              0.000              0.000
 Translational            0.889              2.981             36.134
 Rotational               0.889              2.981             16.287
 Vibrational             47.278              4.151              1.936
 Vibration     1          0.707              1.632              1.302

 Optimization completed.
    -- Stationary point found.
 Normal termination of Gaussian 09 at Wed Mar 18 11:28:31 2015.
