 Gaussian 09, Revision D.01,
 Gaussian 09:  EM64L-G09RevD.01 24-Apr-2013

 ----------------------------------------------------------------------
 #p pbe1pbe EmpiricalDispersion=GD3BJ def2svp geom=allcheck guess=read
 integral=(grid=ultrafine) freq scf=(conver=10,xqc) pop=(hirshfeld,cm5)
  density=current iop(7/33=1) iop(6/80=1)
 ----------------------------------------------------------------------

 Structure from the checkpoint file:  "02-dielsalder-p.chk"
 ------------------------
 -- Dielsalder Product --
 ------------------------
 Charge =  0 Multiplicity = 1

                         Standard orientation:
 ---------------------------------------------------------------------
 Center     Atomic      Atomic             Coordinates (Angstroms)
 Number     Number       Type             X           Y           Z
 ---------------------------------------------------------------------
      1          6           0       -0.222775    0.249503    1.121016
      2          1           0       -0.513408    0.478049    2.155380
      3          6           0        1.121974    0.779675    0.670376
      4          1           0        1.964790    0.994613    1.330675
      5          6           0        1.121974    0.779675   -0.670376
      6          1           0        1.964790    0.994613   -1.330675
      7          6           0       -0.222775    0.249503   -1.121016
      8          1           0       -0.513408    0.478049   -2.155380
      9          6           0       -0.222775   -1.267918    0.774294
     10          1           0        0.645913   -1.785439    1.206200
     11          1           0       -1.126798   -1.752112    1.175310
     12          6           0       -0.222775   -1.267918   -0.774294
     13          1           0       -1.126798   -1.752112   -1.175310
     14          1           0        0.645913   -1.785439   -1.206200
     15          6           0       -1.122232    0.791649    0.000000
     16          1           0       -2.134560    0.355201    0.000000
     17          1           0       -1.190132    1.889557    0.000000
 ---------------------------------------------------------------------

 SCF Done:  E(RPBE1PBE) =  -272.225335766     A.U. after    1 cycles

 The electronic state is 1-A'.
 Alpha  occ. eigenvalues --  -10.23662 -10.23660 -10.22817 -10.22808 -10.22665
 Alpha  occ. eigenvalues --  -10.22552 -10.22470  -0.90534  -0.75604  -0.73009
 Alpha  occ. eigenvalues --   -0.70668  -0.59045  -0.56720  -0.52828  -0.52049
 Alpha  occ. eigenvalues --   -0.48756  -0.45167  -0.40602  -0.39215  -0.35871
 Alpha  occ. eigenvalues --   -0.35811  -0.35254  -0.34503  -0.33726  -0.31180
 Alpha  occ. eigenvalues --   -0.24950
 Alpha virt. eigenvalues --    0.02058   0.06851   0.10414   0.10882   0.12067
 Alpha virt. eigenvalues --    0.13015   0.14690   0.14784   0.15659   0.15903
 Alpha virt. eigenvalues --    0.18412   0.19488   0.20211   0.21403   0.23781

 Mulliken charges:
               1
     1  C   -0.204193
     2  H    0.025678
     3  C   -0.014253
     4  H    0.021524
     5  C   -0.014253
     6  H    0.021524
     7  C   -0.204193
     8  H    0.025678
     9  C    0.037784
    10  H    0.032522
    11  H    0.034909
    12  C    0.037784
    13  H    0.034909
    14  H    0.032522
    15  C    0.052638
    16  H    0.033047
    17  H    0.046374
 Sum of Mulliken charges =   0.00000

 Dipole moment (field-independent basis, Debye):
    X=             -0.1274    Y=             -0.2966    Z=              0.0000  Tot=              0.3228
 Quadrupole moment (field-independent basis, Debye-Ang):
   XX=            -42.4410   YY=            -45.0595   ZZ=            -42.2193
   XY=              0.3537   XZ=              0.0000   YZ=              0.0000

  Exact polarizability:  66.512   3.970  63.764   0.000   0.000  72.567
 Approx polarizability:  91.952   4.872  86.679   0.000   0.000 110.691

                      1                      2                      3
                     A"                     A'                     A'
 Frequencies --    254.4925               380.8211               480.6375
 Red. masses --      1.7128                 2.1964                 1.7243
 Frc consts  --      0.0654                 0.1877                 0.2347
 IR Inten    --      0.0294                 2.4014                 1.0291

                      4                      5                      6
                     A"                     A"                     A'
 Frequencies --    488.4324               677.7717               730.7617
 Red. masses --      2.9178                 4.0363                 1.4526
 Frc consts  --      0.4101                 1.0924                 0.4570
 IR Inten    --      0.1355                 0.6893                39.1772

                      7                      8                      9
                     A'                     A"                     A'
 Frequencies --    788.2996               814.3818               817.8900
 Red. masses --      3.3415                 3.7854                 1.4861
 Frc consts  --      1.2234                 1.4792                 0.5857
 IR Inten    --      6.0693                 2.1383                 0.9949

                     10                     11                     12
                     A"                     A'                     A'
 Frequencies --    857.5891               905.1090               935.1145
 Red. masses --      2.1280                 2.3279                 2.1557
 Frc consts  --      0.9221                 1.1236                 1.1106
 IR Inten    --      4.4421                 5.8698                 1.0451

                     13                     14                     15
                     A"                     A"                     A"
 Frequencies --    944.9221               968.5331               969.1816
 Red. masses --      1.6316                 1.4627                 1.4798
 Frc consts  --      0.8583                 0.8084                 0.8190
 IR Inten    --      3.5585                 0.2783                 0.8474

                     16                     17                     18
                     A'                     A'                     A'
 Frequencies --    974.7261               990.1253              1042.2143
 Red. masses --      2.5313                 1.7843                 1.6218
 Frc consts  --      1.4170                 1.0306                 1.0379
 IR Inten    --      0.3332                 0.2701                 1.4201

                     19                     20                     21
                     A"                     A'                     A"
 Frequencies --   1049.0723              1103.8375              1132.2941
 Red. masses --      1.5034                 1.2331                 1.1050
 Frc consts  --      0.9749                 0.8852                 0.8347
 IR Inten    --      0.7616                 1.4323                 0.3532

                     22                     23                     24
                     A'                     A'                     A"
 Frequencies --   1142.4436              1196.3014              1202.7044
 Red. masses --      1.1278                 1.5811                 1.7639
 Frc consts  --      0.8673                 1.3332                 1.5033
 IR Inten    --      6.6025                 0.2021                 0.1917

                     25                     26                     27
                     A"                     A"                     A"
 Frequencies --   1235.0992              1271.8094              1277.4611
 Red. masses --      1.4875                 1.3527                 1.3054
 Frc consts  --      1.3369                 1.2891                 1.2552
 IR Inten    --      0.4350                 0.8949                 0.0768

                     28                     29                     30
                     A"                     A'                     A'
 Frequencies --   1308.2272              1321.0791              1327.0300
 Red. masses --      1.6744                 1.8701                 1.5672
 Frc consts  --      1.6884                 1.9229                 1.6260
 IR Inten    --      3.1222                 1.8973                 0.3499

                     31                     32                     33
                     A"                     A"                     A'
 Frequencies --   1370.1780              1458.6382              1461.1500
 Red. masses --      1.9404                 1.0809                 1.1260
 Frc consts  --      2.1464                 1.3549                 1.4163
 IR Inten    --      8.3651                 1.3123                 5.6202

                     34                     35                     36
                     A'                     A'                     A'
 Frequencies --   1485.0591              1676.4748              3072.8953
 Red. masses --      1.1134                 6.1073                 1.0619
 Frc consts  --      1.4467                10.1134                 5.9076
 IR Inten    --      1.7234                 1.2757                30.7845

                     37                     38                     39
                     A"                     A'                     A"
 Frequencies --   3076.2611              3087.2342              3134.3443
 Red. masses --      1.0622                 1.0640                 1.1071
 Frc consts  --      5.9227                 5.9746                 6.4080
 IR Inten    --     22.5883                37.6495                 3.5823

                     40                     41                     42
                     A"                     A'                     A'
 Frequencies --   3137.9941              3140.8375              3147.0358
 Red. masses --      1.0890                 1.0931                 1.1055
 Frc consts  --      6.3183                 6.3535                 6.4506
 IR Inten    --     49.4828                 5.3918                25.2094

                     43                     44                     45
                     A'                     A"                     A'
 Frequencies --   3149.7716              3217.9041              3243.1187
 Red. masses --      1.1076                 1.0870                 1.1088
 Frc consts  --      6.4741                 6.6318                 6.8714
 IR Inten    --     29.1686                 4.0075                 9.6109

 - Thermochemistry -
 -------------------
 Temperature   298.150 Kelvin.  Pressure   1.00000 Atm.
 Atom     1 has atomic number  6 and mass  12.00000

 Molecular mass:    94.07825 amu.
 Principal axes and moments of inertia in atomic units:
                           1         2         3
     Eigenvalues --   456.12709 522.66828 594.94990
           X            0.54802   0.00000   0.83646
           Y            0.83646   0.00000  -0.54802
           Z            0.00000   1.00000   0.00000
 This molecule is an asymmetric top.
 Rotational symmetry number  1.
 Warning -- assumption of classical behavior for rotation
           may cause significant error
 Rotational temperatures (Kelvin)      0.18989     0.16571     0.14558
 Rotational constants (GHZ):           3.95666     3.45294     3.03343
 Zero-point vibrational energy     403424.2 (Joules/Mol)
                                   96.42070 (Kcal/Mol)
 Warning -- explicit consideration of   4 degrees of freedom as
           vibrations may cause significant error
 Vibrational temperatures:    366.16   547.92   691.53   702.74   975.16
          (Kelvin)           1051.40  1134.19  1171.71  1176.76  1233.88
                             1302.25  1345.42  1359.53  1393.50  1394.43
                             1402.41  1424.57  1499.51  1509.38  1588.17
                             1629.12  1643.72  1721.21  1730.42  1777.03
                             1829.85  1837.98  1882.24  1900.74  1909.30
                             1971.38  2098.65  2102.27  2136.67  2412.07
                             4421.21  4426.05  4441.84  4509.62  4514.87
                             4518.96  4527.88  4531.81  4629.84  4666.12

 Zero-point correction=                           0.153656 (Hartree/Particle)
 Thermal correction to Energy=                    0.158853
 Thermal correction to Enthalpy=                  0.159798
 Thermal correction to Gibbs Free Energy=         0.125146
 Sum of electronic and zero-point Energies=           -272.071680
 Sum of electronic and thermal Energies=              -272.066482
 Sum of electronic and thermal Enthalpies=            -272.065538
 Sum of electronic and thermal Free Energies=         -272.100190

                     E (Thermal)             CV                S
                      KCal/Mol        Cal/Mol-Kelvin    Cal/Mol-Kelvin
 Total                   99.682             22.105             72.930
 Electronic               0.000              0.000              0.000
 Translational            0.889              2.981             39.536
 Rotational               0.889              2.981             26.453
 Vibrational             97.905             16.144              6.941
 Vibration     1          0.665              1.755              1.699
 Vibration     2          0.751              1.511              1.036
 Vibration     3          0.837              1.293              0.708
 Vibration     4          0.844              1.276              0.688

 Optimization completed.
    -- Stationary point found.
 Normal termination of Gaussian 09 at Tue Jun  9 16:13:33 2015.
