 Gaussian 09, Revision D.01,
 Gaussian 09:  EM64L-G09RevD.01 24-Apr-2013

 ----------------------------------------------------------------------
 #p pbe1pbe EmpiricalDispersion=GD3BJ def2svp geom=allcheck guess=read
 integral=(grid=ultrafine) freq scf=(conver=10,xqc) pop=(hirshfeld,cm5)
  density=current iop(7/33=1) iop(6/80=1)
 ----------------------------------------------------------------------

 Structure from the checkpoint file:  "02-dielsalder-r.chk"
 -------------------------
 -- Dielsalder Reactant --
 -------------------------
 Charge =  0 Multiplicity = 1

                         Standard orientation:
 ---------------------------------------------------------------------
 Center     Atomic      Atomic             Coordinates (Angstroms)
 Number     Number       Type             X           Y           Z
 ---------------------------------------------------------------------
      1          6           0       -0.197422    1.128812    1.174832
      2          1           0       -0.526201    1.106984    2.214611
      3          6           0        1.076116    1.215852    0.731785
      4          1           0        1.971694    1.278293    1.352723
      5          6           0        1.076116    1.215852   -0.731785
      6          1           0        1.971694    1.278293   -1.352723
      7          6           0       -0.197422    1.128812   -1.174832
      8          1           0       -0.526201    1.106984   -2.214611
      9          6           0       -0.197422   -2.578627    0.665846
     10          1           0        0.244798   -1.752875    1.231698
     11          1           0       -0.638863   -3.398340    1.241649
     12          6           0       -0.197422   -2.578627   -0.665846
     13          1           0       -0.638863   -3.398340   -1.241649
     14          1           0        0.244798   -1.752875   -1.231698
     15          6           0       -1.118879    1.057713    0.000000
     16          1           0       -1.701834    0.117180    0.000000
     17          1           0       -1.863025    1.875976    0.000000
 ---------------------------------------------------------------------

 SCF Done:  E(RPBE1PBE) =  -272.167556895     A.U. after    1 cycles

 The electronic state is 1-A'.
 Alpha  occ. eigenvalues --  -10.23866 -10.23263 -10.23249 -10.23172 -10.23171
 Alpha  occ. eigenvalues --  -10.22946 -10.22866  -0.87864  -0.76723  -0.71833
 Alpha  occ. eigenvalues --   -0.71809  -0.58027  -0.56162  -0.54119  -0.52842
 Alpha  occ. eigenvalues --   -0.47557  -0.44770  -0.42366  -0.40871  -0.38792
 Alpha  occ. eigenvalues --   -0.37362  -0.37230  -0.35701  -0.31447  -0.28056
 Alpha  occ. eigenvalues --   -0.23261
 Alpha virt. eigenvalues --   -0.01741   0.01794   0.08013   0.08169   0.10486
 Alpha virt. eigenvalues --    0.11695   0.11938   0.12777   0.14418   0.14637
 Alpha virt. eigenvalues --    0.14942   0.15624   0.20723   0.21718   0.23222

 Mulliken charges:
               1
     1  C   -0.115602
     2  H    0.031449
     3  C   -0.027003
     4  H    0.023563
     5  C   -0.027003
     6  H    0.023563
     7  C   -0.115602
     8  H    0.031449
     9  C   -0.124967
    10  H    0.068374
    11  H    0.053020
    12  C   -0.124967
    13  H    0.053020
    14  H    0.068374
    15  C    0.025891
    16  H    0.080036
    17  H    0.076408
 Sum of Mulliken charges =   0.00000

 Dipole moment (field-independent basis, Debye):
    X=             -0.5259    Y=              0.1283    Z=              0.0000  Tot=              0.5413
 Quadrupole moment (field-independent basis, Debye-Ang):
   XX=            -41.6357   YY=            -46.0499   ZZ=            -40.8882
   XY=              0.8255   XZ=              0.0000   YZ=              0.0000

  Exact polarizability:  72.325   5.408  57.091   0.000   0.000  81.645
 Approx polarizability: 114.141   7.242  71.137   0.000   0.000 125.324

 ******    1 imaginary frequencies (negative Signs) ******

                      1                      2                      3
                     A"                     A"                     A'
 Frequencies --    -33.8143                41.5448                54.8088
 Red. masses --      2.5570                 2.5672                 3.1054
 Frc consts  --      0.0017                 0.0026                 0.0055
 IR Inten    --      0.0036                 0.0088                 0.8304

                      4                      5                      6
                     A'                     A"                     A'
 Frequencies --     74.4925                81.3726               127.3722
 Red. masses --      2.8337                 2.4632                 1.2276
 Frc consts  --      0.0093                 0.0096                 0.0117
 IR Inten    --      0.1310                 0.0024                 0.8365

                      7                      8                      9
                     A'                     A"                     A'
 Frequencies --    335.3158               529.8698               683.5445
 Red. masses --      1.4323                 2.3437                 1.2163
 Frc consts  --      0.0949                 0.3877                 0.3348
 IR Inten    --     16.5235                 0.0334                74.9585

                     10                     11                     12
                     A"                     A'                     A"
 Frequencies --    722.6536               811.6475               813.3192
 Red. masses --      1.2753                 4.8379                 5.1531
 Frc consts  --      0.3924                 1.8778                 2.0084
 IR Inten    --      0.3902                 0.0852                 6.3614

                     13                     14                     15
                     A'                     A'                     A'
 Frequencies --    824.8175               904.0030               948.3811
 Red. masses --      1.0415                 1.8939                 1.8290
 Frc consts  --      0.4175                 0.9119                 0.9693
 IR Inten    --      3.3996                24.9037                11.1597

                     16                     17                     18
                     A'                     A"                     A'
 Frequencies --    967.9813               971.8409               975.2947
 Red. masses --      1.2952                 1.3375                 1.1714
 Frc consts  --      0.7150                 0.7443                 0.6565
 IR Inten    --     10.4727                 0.1012                81.3174

                     19                     20                     21
                     A"                     A"                     A'
 Frequencies --    978.2808               983.2523              1037.6830
 Red. masses --      1.4493                 1.4628                 2.0334
 Frc consts  --      0.8172                 0.8332                 1.2900
 IR Inten    --      8.1325                 3.8374                 0.0745

                     22                     23                     24
                     A"                     A"                     A"
 Frequencies --   1068.6812              1097.2813              1111.8574
 Red. masses --      1.0091                 1.1218                 1.1481
 Frc consts  --      0.6790                 0.7958                 0.8362
 IR Inten    --      0.2007                 4.0388                 0.0358

                     25                     26                     27
                     A'                     A"                     A"
 Frequencies --   1123.0303              1223.2859              1264.3246
 Red. masses --      1.4465                 1.5181                 1.4546
 Frc consts  --      1.0749                 1.3385                 1.3700
 IR Inten    --      0.3761                 0.6538                 0.8692

                     28                     29                     30
                     A"                     A'                     A'
 Frequencies --   1331.8858              1360.0778              1364.4860
 Red. masses --      2.3638                 1.1242                 1.1345
 Frc consts  --      2.4705                 1.2252                 1.2444
 IR Inten    --      1.9592                26.2048                 9.3027

                     31                     32                     33
                     A'                     A"                     A'
 Frequencies --   1416.1238              1435.3490              1590.2144
 Red. masses --      2.1705                 1.1122                 6.6575
 Frc consts  --      2.5646                 1.3501                 9.9191
 IR Inten    --      2.5427                10.7198                 2.5051

                     34                     35                     36
                     A"                     A'                     A'
 Frequencies --   1670.5058              1711.1329              3049.8076
 Red. masses --      5.6640                 3.7159                 1.0639
 Frc consts  --      9.3125                 6.4104                 5.8303
 IR Inten    --      0.8818                 0.4165                 2.1956

                     37                     38                     39
                     A'                     A"                     A'
 Frequencies --   3094.4389              3147.8591              3166.4483
 Red. masses --      1.0998                 1.0476                 1.0790
 Frc consts  --      6.2050                 6.1161                 6.3739
 IR Inten    --      1.0861                 9.2021                 5.5297

                     40                     41                     42
                     A"                     A'                     A"
 Frequencies --   3225.3297              3235.0574              3246.0005
 Red. masses --      1.0871                 1.0903                 1.1166
 Frc consts  --      6.6628                 6.7227                 6.9320
 IR Inten    --      2.6707                 4.2333                 0.4205

                     43                     44                     45
                     A"                     A'                     A'
 Frequencies --   3252.9738              3258.7051              3268.6690
 Red. masses --      1.1026                 1.1093                 1.1184
 Frc consts  --      6.8746                 6.9402                 7.0405
 IR Inten    --      6.5164                 1.5485                 6.0570

 - Thermochemistry -
 -------------------
 Temperature   298.150 Kelvin.  Pressure   1.00000 Atm.
 Atom     1 has atomic number  6 and mass  12.00000

 Molecular mass:    94.07825 amu.
 Principal axes and moments of inertia in atomic units:
                           1         2         3
     Eigenvalues --   476.017311207.562421276.90167
           X            0.12452   0.00000   0.99222
           Y            0.99222   0.00000  -0.12452
           Z            0.00000   1.00000   0.00000
 This molecule is an asymmetric top.
 Rotational symmetry number  1.
 Warning -- assumption of classical behavior for rotation
           may cause significant error
 Rotational temperatures (Kelvin)      0.18196     0.07173     0.06783
 Rotational constants (GHZ):           3.79134     1.49453     1.41338
    1 imaginary frequencies ignored.
 Zero-point vibrational energy     380298.8 (Joules/Mol)
                                   90.89360 (Kcal/Mol)
 Warning -- explicit consideration of   7 degrees of freedom as
           vibrations may cause significant error
 Vibrational temperatures:     59.77    78.86   107.18   117.08   183.26
          (Kelvin)            482.44   762.36   983.47  1039.74  1167.78
                             1170.18  1186.73  1300.66  1364.51  1392.71
                             1398.26  1403.23  1407.53  1414.68  1492.99
                             1537.59  1578.74  1599.71  1615.79  1760.03
                             1819.08  1916.28  1956.85  1963.19  2037.48
                             2065.14  2287.96  2403.48  2461.94  4387.99
                             4452.20  4529.06  4555.81  4640.52  4654.52
                             4670.26  4680.30  4688.54  4702.88

 Zero-point correction=                           0.144848 (Hartree/Particle)
 Thermal correction to Energy=                    0.153132
 Thermal correction to Enthalpy=                  0.154076
 Thermal correction to Gibbs Free Energy=         0.110073
 Sum of electronic and zero-point Energies=           -272.022709
 Sum of electronic and thermal Energies=              -272.014425
 Sum of electronic and thermal Enthalpies=            -272.013481
 Sum of electronic and thermal Free Energies=         -272.057484

                     E (Thermal)             CV                S
                      KCal/Mol        Cal/Mol-Kelvin    Cal/Mol-Kelvin
 Total                   96.092             27.551             92.613
 Electronic               0.000              0.000              0.000
 Translational            0.889              2.981             39.536
 Rotational               0.889              2.981             28.086
 Vibrational             94.314             21.589             24.991
 Vibration     1          0.594              1.981              5.184
 Vibration     2          0.596              1.976              4.636
 Vibration     3          0.599              1.966              4.031
 Vibration     4          0.600              1.962              3.857
 Vibration     5          0.611              1.926              2.985
 Vibration     6          0.716              1.605              1.234
 Vibration     7          0.885              1.184              0.587

 Optimization completed.
    -- Stationary point found.
 Normal termination of Gaussian 09 at Tue Jun  9 16:12:17 2015.
