 Gaussian 09, Revision D.01,
 Gaussian 09:  EM64L-G09RevD.01 24-Apr-2013

 ----------------------------------------------------------------------
 #p pbe1pbe def2svp opt freq pop(hirshfeld) density=current iop(7/33=1)
  iop(6/80=1)
 ----------------------------------------------------------------------

 ---------
 -- HCN --
 ---------
 Symbolic Z-matrix:
 Charge =  0 Multiplicity = 1

 SCF Done:  E(RPBE1PBE) =  -93.2366192081     A.U. after   11 cycles
 SCF Done:  E(RPBE1PBE) =  -93.2368085293     A.U. after    8 cycles
 SCF Done:  E(RPBE1PBE) =  -93.2368091176     A.U. after    6 cycles
 Optimization completed.
    -- Stationary point found.
 Normal termination of Gaussian 09 at Wed Mar 18 11:28:54 2015.

 ----------------------------------------------------------------------
 #P Geom=AllCheck Guess=TCheck SCRF=Check Test GenChk RPBE1PBE/def2SVP
 Freq
 ----------------------------------------------------------------------

 Structure from the checkpoint file:  "g09-hcn.chk"
 ---------
 -- HCN --
 ---------
 Charge =  0 Multiplicity = 1

                         Standard orientation:
 ---------------------------------------------------------------------
 Center     Atomic      Atomic             Coordinates (Angstroms)
 Number     Number       Type             X           Y           Z
 ---------------------------------------------------------------------
      1          6           0        0.000000    0.000000   -0.499794
      2          1           0        0.000000    0.000000   -1.579325
      3          7           0        0.000000    0.000000    0.654013
 ---------------------------------------------------------------------

 SCF Done:  E(RPBE1PBE) =  -93.2368091176     A.U. after    1 cycles

 The electronic state is 1-SG.
 Alpha  occ. eigenvalues --  -14.41541 -10.29153  -0.93937  -0.61596  -0.39451
 Alpha  occ. eigenvalues --   -0.37885  -0.37885
 Alpha virt. eigenvalues --    0.02300   0.02300   0.06774   0.18637   0.48504
 Alpha virt. eigenvalues --    0.48504   0.56567   0.65761   0.68473   0.82586
 Alpha virt. eigenvalues --    0.82586   1.01694   1.06773   1.29506   1.29506

 Mulliken charges:
               1
     1  C   -0.074922
     2  H    0.116695
     3  N   -0.041773
 Sum of Mulliken charges =   0.00000

 Dipole moment (field-independent basis, Debye):
    X=              0.0000    Y=              0.0000    Z=             -2.9009  Tot=              2.9009
 Quadrupole moment (field-independent basis, Debye-Ang):
   XX=            -11.5070   YY=            -11.5070   ZZ=             -9.6326
   XY=              0.0000   XZ=              0.0000   YZ=              0.0000

  Exact polarizability:   8.339   0.000   8.339   0.000   0.000  19.800
 Approx polarizability:  10.153   0.000  10.153   0.000   0.000  36.492

                      1                      2                      3
                     PI                     PI                     SG
 Frequencies --    771.8131               771.8131              2242.4554
 Red. masses --      1.3467                 1.3467                 4.9567
 Frc consts  --      0.4727                 0.4727                14.6857
 IR Inten    --     37.3886                37.3886                 3.6247

                      4
                     SG
 Frequencies --   3475.4484
 Red. masses --      1.1988
 Frc consts  --      8.5313
 IR Inten    --     73.3178

 - Thermochemistry -
 -------------------
 Temperature   298.150 Kelvin.  Pressure   1.00000 Atm.
 Atom     1 has atomic number  6 and mass  12.00000

 Molecular mass:    27.01090 amu.
 Principal axes and moments of inertia in atomic units:
                           1         2         3
     Eigenvalues --     0.00000  40.74497  40.74497
           X            0.00000   0.00000   1.00000
           Y            0.00000   1.00000   0.00000
           Z            1.00000   0.00000   0.00000
 This molecule is a prolate symmetric top.
 Rotational symmetry number  1.
 Rotational temperature (Kelvin)      2.12575
 Rotational constant (GHZ):          44.293597
 Zero-point vibrational energy      43433.6 (Joules/Mol)
                                   10.38088 (Kcal/Mol)
 Vibrational temperatures:   1110.47  1110.47  3226.39  5000.39
          (Kelvin)

 Zero-point correction=                           0.016543 (Hartree/Particle)
 Thermal correction to Energy=                    0.019078
 Thermal correction to Enthalpy=                  0.020022
 Thermal correction to Gibbs Free Energy=        -0.002828
 Sum of electronic and zero-point Energies=            -93.220266
 Sum of electronic and thermal Energies=               -93.217732
 Sum of electronic and thermal Enthalpies=             -93.216787
 Sum of electronic and thermal Free Energies=          -93.239637

                     E (Thermal)             CV                S
                      KCal/Mol        Cal/Mol-Kelvin    Cal/Mol-Kelvin
 Total                   11.971              6.369             48.091
 Electronic               0.000              0.000              0.000
 Translational            0.889              2.981             35.816
 Rotational               0.592              1.987             11.811
 Vibrational             10.490              1.401              0.463

 Optimization completed.
    -- Stationary point found.
 Normal termination of Gaussian 09 at Wed Mar 18 11:29:00 2015.
