 Gaussian 09, Revision D.01,
 Gaussian 09:  EM64L-G09RevD.01 24-Apr-2013

 ----------------------------------------------------------------------
 #p pbe1pbe def2svp opt freq pop(hirshfeld) density=current iop(7/33=1)
  iop(6/80=1)
 ----------------------------------------------------------------------

 ---------------
 -- H3B...NH3 --
 ---------------
 Symbolic Z-matrix:
 Charge =  0 Multiplicity = 1

 SCF Done:  E(RPBE1PBE) =  -82.9941418132     A.U. after   11 cycles
 SCF Done:  E(RPBE1PBE) =  -83.0312293754     A.U. after   10 cycles
 SCF Done:  E(RPBE1PBE) =  -83.0406146602     A.U. after   10 cycles
 SCF Done:  E(RPBE1PBE) =  -83.0409520177     A.U. after    9 cycles
 SCF Done:  E(RPBE1PBE) =  -83.0409693033     A.U. after    7 cycles
 SCF Done:  E(RPBE1PBE) =  -83.0409745444     A.U. after    7 cycles
 Optimization completed.
    -- Stationary point found.
 Normal termination of Gaussian 09 at Wed Mar 18 13:59:06 2015.

 ----------------------------------------------------------------------
 #P Geom=AllCheck Guess=TCheck SCRF=Check Test GenChk RPBE1PBE/def2SVP
 Freq
 ----------------------------------------------------------------------

 Structure from the checkpoint file:  "g09-h3b-nh3.chk"
 ---------------
 -- H3B...NH3 --
 ---------------
 Charge =  0 Multiplicity = 1

                         Standard orientation:
 ---------------------------------------------------------------------
 Center     Atomic      Atomic             Coordinates (Angstroms)
 Number     Number       Type             X           Y           Z
 ---------------------------------------------------------------------
      1          1           0        0.000000    0.951201    1.088515
      2          1           0        0.823764   -0.475600    1.088515
      3          1           0       -0.823764   -0.475600    1.088515
      4          1           0        0.000000   -1.180362   -1.241896
      5          1           0       -1.022223    0.590181   -1.241896
      6          1           0        1.022223    0.590181   -1.241896
      7          7           0        0.000000    0.000000    0.719237
      8          5           0        0.000000    0.000000   -0.914903
 ---------------------------------------------------------------------

 SCF Done:  E(RPBE1PBE) =  -83.0409745444     A.U. after    1 cycles

 The electronic state is 1-A1.
 Alpha  occ. eigenvalues --  -14.47724  -6.71767  -0.96739  -0.56703  -0.56703
 Alpha  occ. eigenvalues --   -0.52825  -0.36419  -0.27848  -0.27848
 Alpha virt. eigenvalues --    0.02075   0.09567   0.09567   0.17118   0.19211
 Alpha virt. eigenvalues --    0.19211   0.24055   0.33188   0.33550   0.33550
 Alpha virt. eigenvalues --    0.40632   0.49129   0.49129   0.60142   0.70587

 Mulliken charges:
               1
     1  H    0.160859
     2  H    0.160859
     3  H    0.160859
     4  H   -0.073302
     5  H   -0.073302
     6  H   -0.073302
     7  N   -0.020900
     8  B   -0.241772
 Sum of Mulliken charges =   0.00000

 Dipole moment (field-independent basis, Debye):
    X=              0.0000    Y=              0.0000    Z=              5.7393  Tot=              5.7393
 Quadrupole moment (field-independent basis, Debye-Ang):
   XX=            -15.9151   YY=            -15.9151   ZZ=            -16.4265
   XY=              0.0000   XZ=              0.0000   YZ=              0.0000

  Exact polarizability:  26.125   0.000  26.124   0.000  -0.001  24.093
 Approx polarizability:  32.418   0.000  32.418   0.000   0.000  26.951

                      1                      2                      3
                     A2                      E                      E
 Frequencies --    285.4173               654.1942               654.1947
 Red. masses --      1.0078                 1.0465                 1.0465
 Frc consts  --      0.0484                 0.2639                 0.2639
 IR Inten    --      0.0000                 2.3598                 2.3616

                      4                      5                      6
                     A1                      E                      E
 Frequencies --    708.8432              1062.5307              1062.5317
 Red. masses --      4.5595                 1.3806                 1.3806
 Frc consts  --      1.3498                 0.9183                 0.9183
 IR Inten    --      7.2451                38.6417                38.6417

                      7                      8                      9
                      E                      E                     A1
 Frequencies --   1157.3284              1157.3285              1167.6966
 Red. masses --      1.0453                 1.0453                 1.1596
 Frc consts  --      0.8249                 0.8249                 0.9316
 IR Inten    --      0.5120                 0.5122                87.1802

                     10                     11                     12
                     A1                      E                      E
 Frequencies --   1306.3966              1632.0207              1632.0213
 Red. masses --      1.1844                 1.0519                 1.0519
 Frc consts  --      1.1909                 1.6508                 1.6508
 IR Inten    --    109.5548                24.9862                24.9870

                     13                     14                     15
                     A1                      E                      E
 Frequencies --   2433.7033              2511.0066              2511.0086
 Red. masses --      1.0250                 1.1168                 1.1168
 Frc consts  --      3.5768                 4.1489                 4.1489
 IR Inten    --     72.1859               238.2867               238.2425

                     16                     17                     18
                     A1                      E                      E
 Frequencies --   3497.3371              3617.1659              3617.1661
 Red. masses --      1.0289                 1.0926                 1.0926
 Frc consts  --      7.4146                 8.4224                 8.4224
 IR Inten    --      6.8712                48.8124                48.8107

 - Thermochemistry -
 -------------------
 Temperature   298.150 Kelvin.  Pressure   1.00000 Atm.
 Atom     1 has atomic number  1 and mass   1.00783

 Molecular mass:    31.05933 amu.
 Principal axes and moments of inertia in atomic units:
                           1         2         3
     Eigenvalues --    24.81196 100.60304 100.60304
           X            0.00000   0.97439  -0.22486
           Y            0.00000   0.22486   0.97439
           Z            1.00000   0.00000   0.00000
 This molecule is a prolate symmetric top.
 Rotational symmetry number  3.
 Rotational temperatures (Kelvin)      3.49081     0.86095     0.86095
 Rotational constants (GHZ):          72.73675    17.93923    17.93923
 Zero-point vibrational energy     183434.7 (Joules/Mol)
                                   43.84195 (Kcal/Mol)
 Warning -- explicit consideration of   1 degrees of freedom as
           vibrations may cause significant error
 Vibrational temperatures:    410.65   941.24   941.24  1019.87  1528.74
          (Kelvin)           1528.74  1665.14  1665.14  1680.05  1879.61
                             2348.11  2348.11  3501.55  3612.77  3612.78
                             5031.88  5204.29  5204.29

 Zero-point correction=                           0.069867 (Hartree/Particle)
 Thermal correction to Energy=                    0.073645
 Thermal correction to Enthalpy=                  0.074590
 Thermal correction to Gibbs Free Energy=         0.047476
 Sum of electronic and zero-point Energies=            -82.971108
 Sum of electronic and thermal Energies=               -82.967329
 Sum of electronic and thermal Enthalpies=             -82.966385
 Sum of electronic and thermal Free Energies=          -82.993499

                     E (Thermal)             CV                S
                      KCal/Mol        Cal/Mol-Kelvin    Cal/Mol-Kelvin
 Total                   46.213             11.881             57.065
 Electronic               0.000              0.000              0.000
 Translational            0.889              2.981             36.233
 Rotational               0.889              2.981             17.974
 Vibrational             44.436              5.919              2.859
 Vibration     1          0.683              1.701              1.501

 Optimization completed.
    -- Stationary point found.
 Normal termination of Gaussian 09 at Wed Mar 18 13:59:41 2015.
