 Gaussian 09, Revision D.01,
 Gaussian 09:  EM64L-G09RevD.01 24-Apr-2013

 ------------------------------------------------------------
 #p opt=verytight freq b3lyp def2svp guess=read geom=allcheck
 ------------------------------------------------------------

 Structure from the checkpoint file:  "ethane.chk"
 ----------------------
 -- ethane staggered --
 ----------------------
 Charge =  0 Multiplicity = 1

 SCF Done:  E(RB3LYP) =  -79.7716335811     A.U. after    1 cycles
 Optimization completed.
    -- Stationary point found.
 Normal termination of Gaussian 09 at Wed Mar  4 21:43:43 2015.

 -------------------------------------------------------------------
 #P Geom=AllCheck Guess=TCheck SCRF=Check GenChk RB3LYP/def2SVP Freq
 -------------------------------------------------------------------

 Structure from the checkpoint file:  "ethane.chk"
 ----------------------
 -- ethane staggered --
 ----------------------
 Charge =  0 Multiplicity = 1

                         Standard orientation:
 ---------------------------------------------------------------------
 Center     Atomic      Atomic             Coordinates (Angstroms)
 Number     Number       Type             X           Y           Z
 ---------------------------------------------------------------------
      1          6           0        0.000000    0.000000    0.763833
      2          1           0        0.512528    0.888053    1.168778
      3          1           0        0.512813   -0.887889    1.168778
      4          1           0       -1.025341   -0.000165    1.168778
      5          6           0        0.000000    0.000000   -0.763833
      6          1           0        1.025341   -0.000165   -1.168778
      7          1           0       -0.512813   -0.887889   -1.168778
      8          1           0       -0.512528    0.888053   -1.168778
 ---------------------------------------------------------------------

 SCF Done:  E(RB3LYP) =  -79.7716335811     A.U. after    1 cycles

 The electronic state is 1-A1.
 Alpha  occ. eigenvalues --  -10.17853 -10.17851  -0.74295  -0.60645  -0.43167
 Alpha  occ. eigenvalues --   -0.43167  -0.37020  -0.34116  -0.34116
 Alpha virt. eigenvalues --    0.06294   0.10789   0.12336   0.12336   0.15593
 Alpha virt. eigenvalues --    0.15593   0.23407   0.41187   0.41187   0.42788
 Alpha virt. eigenvalues --    0.52305   0.52305   0.61121   0.64217   0.67149

 Mulliken charges:
               1
     1  C   -0.042810
     2  H    0.014270
     3  H    0.014270
     4  H    0.014270
     5  C   -0.042810
     6  H    0.014270
     7  H    0.014270
     8  H    0.014270
 Sum of Mulliken charges =   0.00000

 Dipole moment (field-independent basis, Debye):
    X=              0.0000    Y=              0.0000    Z=              0.0000  Tot=              0.0000
 Quadrupole moment (field-independent basis, Debye-Ang):
   XX=            -14.8914   YY=            -14.8914   ZZ=            -15.4466
   XY=              0.0000   XZ=              0.0000   YZ=              0.0000

  Exact polarizability:  23.434   0.000  23.434   0.000   0.000  25.704
 Approx polarizability:  30.165   0.000  30.165   0.000   0.000  29.897

                      1                      2                      3
                     A1                      E                      E
 Frequencies --    317.2352               820.8864               820.8867
 Red. masses --      1.0078                 1.0586                 1.0586
 Frc consts  --      0.0598                 0.4203                 0.4203
 IR Inten    --      0.0000                 4.7660                 4.7677

                      4                      5                      6
                     A1                      E                      E
 Frequencies --   1011.0473              1204.2461              1204.2491
 Red. masses --      3.0130                 1.4770                 1.4770
 Frc consts  --      1.8147                 1.2620                 1.2620
 IR Inten    --      0.0000                 0.0000                 0.0000

                      7                      8                      9
                     A2                     A1                      E
 Frequencies --   1386.1141              1415.1647              1475.4578
 Red. masses --      1.1971                 1.2937                 1.0157
 Frc consts  --      1.3551                 1.5265                 1.3028
 IR Inten    --      0.0012                 0.0000                 0.0001

                     10                     11                     12
                      E                      E                      E
 Frequencies --   1475.4584              1478.5580              1478.5594
 Red. masses --      1.0157                 1.0603                 1.0603
 Frc consts  --      1.3028                 1.3657                 1.3657
 IR Inten    --      0.0001                 7.7973                 7.7998

                     13                     14                     15
                     A2                     A1                      E
 Frequencies --   3027.0336              3028.2041              3093.1981
 Red. masses --      1.0350                 1.0385                 1.1032
 Frc consts  --      5.5874                 5.6107                 6.2190
 IR Inten    --     54.2476                 0.0000                 0.0000

                     16                     17                     18
                      E                      E                      E
 Frequencies --   3093.1991              3114.5792              3114.5802
 Red. masses --      1.1032                 1.1038                 1.1038
 Frc consts  --      6.2190                 6.3084                 6.3084
 IR Inten    --      0.0000                56.5351                56.5267

 - Thermochemistry -
 -------------------
 Temperature   298.150 Kelvin.  Pressure   1.00000 Atm.
 Atom     1 has atomic number  6 and mass  12.00000

 Molecular mass:    30.04695 amu.
 Principal axes and moments of inertia in atomic units:
                           1         2         3
     Eigenvalues --    22.70234  90.85362  90.85362
           X            0.00000   0.36817   0.92976
           Y            0.00000   0.92976  -0.36817
           Z            1.00000   0.00000   0.00000
 This molecule is a prolate symmetric top.
 Rotational symmetry number  6.
 Rotational temperatures (Kelvin)      3.81519     0.95333     0.95333
 Rotational constants (GHZ):          79.49583    19.86427    19.86427
 Zero-point vibrational energy     194744.0 (Joules/Mol)
                                   46.54494 (Kcal/Mol)
 Warning -- explicit consideration of   1 degrees of freedom as
           vibrations may cause significant error
 Vibrational temperatures:    456.43  1181.07  1181.07  1454.67  1732.64
          (Kelvin)           1732.64  1994.31  2036.10  2122.85  2122.85
                             2127.31  2127.31  4355.22  4356.90  4450.42
                             4450.42  4481.18  4481.18

 Zero-point correction=                           0.074174 (Hartree/Particle)
 Thermal correction to Energy=                    0.077656
 Thermal correction to Enthalpy=                  0.078600
 Thermal correction to Gibbs Free Energy=         0.052751
 Sum of electronic and zero-point Energies=            -79.697460
 Sum of electronic and thermal Energies=               -79.693978
 Sum of electronic and thermal Enthalpies=             -79.693034
 Sum of electronic and thermal Free Energies=          -79.718883

                     E (Thermal)             CV                S
                      KCal/Mol        Cal/Mol-Kelvin    Cal/Mol-Kelvin
 Total                   48.730             10.143             54.404
 Electronic               0.000              0.000              0.000
 Translational            0.889              2.981             36.134
 Rotational               0.889              2.981             16.306
 Vibrational             46.952              4.181              1.965
 Vibration     1          0.704              1.641              1.324

 Optimization completed.
    -- Stationary point found.
 Normal termination of Gaussian 09 at Wed Mar  4 21:44:08 2015.
