 Gaussian 09, Revision D.01,
 Gaussian 09:  EM64L-G09RevD.01 24-Apr-2013

 ----------------------------------------------------------------------
 #p pbe1pbe def2svp opt freq pop(hirshfeld) density=current iop(7/33=1)
  iop(6/80=1)
 ----------------------------------------------------------------------

 -------------
 -- Benzene --
 -------------
 Symbolic Z-matrix:
 Charge =  0 Multiplicity = 1

 SCF Done:  E(RPBE1PBE) =  -231.801893544     A.U. after   10 cycles
 SCF Done:  E(RPBE1PBE) =  -231.802061051     A.U. after    7 cycles
 Optimization completed.
    -- Stationary point found.
 Normal termination of Gaussian 09 at Wed Mar 18 11:35:18 2015.

 ----------------------------------------------------------------------
 #P Geom=AllCheck Guess=TCheck SCRF=Check Test GenChk RPBE1PBE/def2SVP
 Freq
 ----------------------------------------------------------------------

 Structure from the checkpoint file:  "g09-benzene.chk"
 -------------
 -- Benzene --
 -------------
 Charge =  0 Multiplicity = 1

                         Standard orientation:
 ---------------------------------------------------------------------
 Center     Atomic      Atomic             Coordinates (Angstroms)
 Number     Number       Type             X           Y           Z
 ---------------------------------------------------------------------
      1          6           0        0.000000    1.394814    0.000000
      2          6           0        1.207944    0.697407    0.000000
      3          6           0        1.207944   -0.697407    0.000000
      4          6           0        0.000000   -1.394814    0.000000
      5          6           0       -1.207944   -0.697407    0.000000
      6          6           0       -1.207944    0.697407    0.000000
      7          1           0        0.000000    2.487427    0.000000
      8          1           0        2.154175    1.243713    0.000000
      9          1           0        2.154175   -1.243713    0.000000
     10          1           0        0.000000   -2.487427    0.000000
     11          1           0       -2.154175   -1.243713    0.000000
     12          1           0       -2.154175    1.243713    0.000000
 ---------------------------------------------------------------------

 SCF Done:  E(RPBE1PBE) =  -231.802061051     A.U. after    1 cycles

 The electronic state is 1-A1G.
 Alpha  occ. eigenvalues --  -10.23924 -10.23904 -10.23904 -10.23857 -10.23857
 Alpha  occ. eigenvalues --  -10.23841  -0.87315  -0.76084  -0.76084  -0.61536
 Alpha  occ. eigenvalues --   -0.61536  -0.53805  -0.46876  -0.46336  -0.43395
 Alpha  occ. eigenvalues --   -0.43395  -0.38385  -0.35535  -0.35535  -0.26681
 Alpha  occ. eigenvalues --   -0.26681
 Alpha virt. eigenvalues --   -0.00318  -0.00318   0.06863   0.11215   0.11215
 Alpha virt. eigenvalues --    0.15084   0.15084   0.16005   0.17257   0.29642
 Alpha virt. eigenvalues --    0.29642   0.30902   0.30902   0.37687   0.42107

 Mulliken charges:
               1
     1  C   -0.022600
     2  C   -0.022600
     3  C   -0.022600
     4  C   -0.022600
     5  C   -0.022600
     6  C   -0.022600
     7  H    0.022600
     8  H    0.022600
     9  H    0.022600
    10  H    0.022600
    11  H    0.022600
    12  H    0.022600
 Sum of Mulliken charges =   0.00000

 Dipole moment (field-independent basis, Debye):
    X=              0.0000    Y=              0.0000    Z=              0.0000  Tot=              0.0000
 Quadrupole moment (field-independent basis, Debye-Ang):
   XX=            -31.6506   YY=            -31.6506   ZZ=            -39.3591
   XY=              0.0000   XZ=              0.0000   YZ=              0.0000

  Exact polarizability:  73.029   0.000  73.028   0.000   0.000  27.921
 Approx polarizability: 115.355   0.000 115.355   0.000   0.000  40.626

                      1                      2                      3
                     E2U                    E2U                    E2G
 Frequencies --    415.7645               415.7645               617.5230
 Red. masses --      2.8250                 2.8250                 6.0074
 Frc consts  --      0.2877                 0.2877                 1.3497
 IR Inten    --      0.0000                 0.0000                 0.0000

                      4                      5                      6
                     E2G                    A2U                    B2G
 Frequencies --    617.5230               690.3074               735.1267
 Red. masses --      6.0074                 1.0848                 3.2940
 Frc consts  --      1.3497                 0.3046                 1.0488
 IR Inten    --      0.0000                94.7627                 0.0000

                      7                      8                      9
                     E1G                    E1G                    E2U
 Frequencies --    870.1103               870.1103              1003.4301
 Red. masses --      1.2490                 1.2490                 1.3858
 Frc consts  --      0.5571                 0.5571                 0.8221
 IR Inten    --      0.0000                 0.0000                 0.0000

                     10                     11                     12
                     E2U                    B1U                    A1G
 Frequencies --   1003.4301              1010.8482              1035.3239
 Red. masses --      1.3858                 6.5276                 5.9441
 Frc consts  --      0.8221                 3.9299                 3.7539
 IR Inten    --      0.0000                 0.0000                 0.0000

                     13                     14                     15
                     B2G                    E1U                    E1U
 Frequencies --   1035.9716              1067.4462              1067.4462
 Red. masses --      1.2954                 1.5653                 1.5653
 Frc consts  --      0.8191                 1.0508                 1.0508
 IR Inten    --      0.0000                 6.3653                 6.3651

                     16                     17                     18
                     B2U                    E2G                    E2G
 Frequencies --   1160.7909              1186.3617              1186.3617
 Red. masses --      1.0489                 1.1079                 1.1079
 Frc consts  --      0.8327                 0.9187                 0.9187
 IR Inten    --      0.0000                 0.0000                 0.0000

                     19                     20                     21
                     A2G                    B2U                    E1U
 Frequencies --   1360.0019              1399.3814              1516.6070
 Red. masses --      1.2490                 8.1817                 2.2351
 Frc consts  --      1.3611                 9.4398                 3.0290
 IR Inten    --      0.0000                 0.0000                 8.9223

                     22                     23                     24
                     E1U                    E2G                    E2G
 Frequencies --   1516.6070              1680.3084              1680.3084
 Red. masses --      2.2351                 6.0993                 6.0993
 Frc consts  --      3.0290                10.1462                10.1462
 IR Inten    --      8.9269                 0.0000                 0.0000

                     25                     26                     27
                     B1U                    E2G                    E2G
 Frequencies --   3200.4289              3210.4898              3210.4898
 Red. masses --      1.0842                 1.0892                 1.0892
 Frc consts  --      6.5427                 6.6146                 6.6146
 IR Inten    --      0.0000                 0.0000                 0.0000

                     28                     29                     30
                     E1U                    E1U                    A1G
 Frequencies --   3225.0059              3225.0059              3233.8879
 Red. masses --      1.0976                 1.0976                 1.1021
 Frc consts  --      6.7257                 6.7257                 6.7910
 IR Inten    --     20.8771                20.8754                 0.0000

 - Thermochemistry -
 -------------------
 Temperature   298.150 Kelvin.  Pressure   1.00000 Atm.
 Atom     1 has atomic number  6 and mass  12.00000

 Molecular mass:    78.04695 amu.
 Principal axes and moments of inertia in atomic units:
                           1         2         3
     Eigenvalues --   316.91527 316.91527 633.83054
           X            0.94974   0.31305   0.00000
           Y           -0.31305   0.94974   0.00000
           Z            0.00000   0.00000   1.00000
 This molecule is an oblate symmetric top.
 Rotational symmetry number 12.
 Rotational temperatures (Kelvin)      0.27330     0.27330     0.13665
 Rotational constants (GHZ):           5.69471     5.69471     2.84736
 Zero-point vibrational energy     265859.0 (Joules/Mol)
                                   63.54184 (Kcal/Mol)
 Warning -- explicit consideration of   4 degrees of freedom as
           vibrations may cause significant error
 Vibrational temperatures:    598.19   598.19   888.48   888.48   993.20
          (Kelvin)           1057.68  1251.89  1251.89  1443.71  1443.71
                             1454.38  1489.60  1490.53  1535.82  1535.82
                             1670.12  1706.91  1706.91  1956.74  2013.40
                             2182.06  2182.06  2417.59  2417.59  4604.70
                             4619.17  4619.17  4640.06  4640.06  4652.84

 Zero-point correction=                           0.101260 (Hartree/Particle)
 Thermal correction to Energy=                    0.105633
 Thermal correction to Enthalpy=                  0.106578
 Thermal correction to Gibbs Free Energy=         0.076151
 Sum of electronic and zero-point Energies=           -231.700801
 Sum of electronic and thermal Energies=              -231.696428
 Sum of electronic and thermal Enthalpies=            -231.695483
 Sum of electronic and thermal Free Energies=         -231.725910

                     E (Thermal)             CV                S
                      KCal/Mol        Cal/Mol-Kelvin    Cal/Mol-Kelvin
 Total                   66.286             17.037             64.038
 Electronic               0.000              0.000              0.000
 Translational            0.889              2.981             38.979
 Rotational               0.889              2.981             20.719
 Vibrational             64.508             11.075              4.340
 Vibration     1          0.779              1.436              0.906
 Vibration     2          0.779              1.436              0.906
 Vibration     3          0.977              0.995              0.420
 Vibration     4          0.977              0.995              0.420

 Optimization completed.
    -- Stationary point found.
 Normal termination of Gaussian 09 at Wed Mar 18 11:36:32 2015.
