 Gaussian 09, Revision D.01,
 Gaussian 09:  EM64L-G09RevD.01 24-Apr-2013

 ----------------------------------------------------------------------
 #p pbe1pbe def2svp opt freq pop(hirshfeld) density=current iop(7/33=1)
  iop(6/80=1)
 ----------------------------------------------------------------------

 -----------
 -- Water --
 -----------
 Symbolic Z-matrix:
 Charge =  0 Multiplicity = 1

 SCF Done:  E(RPBE1PBE) =  -76.2731094095     A.U. after   10 cycles
 SCF Done:  E(RPBE1PBE) =  -76.2763047096     A.U. after   10 cycles
 SCF Done:  E(RPBE1PBE) =  -76.2763269322     A.U. after    7 cycles
 Optimization completed.
    -- Stationary point found.
 Normal termination of Gaussian 09 at Thu Mar 26 15:50:19 2015.

 ----------------------------------------------------------------------
 #P Geom=AllCheck Guess=TCheck SCRF=Check Test GenChk RPBE1PBE/def2SVP
 Freq
 ----------------------------------------------------------------------

 Structure from the checkpoint file:  "g09-h2o.chk"
 -----------
 -- Water --
 -----------
 Charge =  0 Multiplicity = 1

                         Standard orientation:
 ---------------------------------------------------------------------
 Center     Atomic      Atomic             Coordinates (Angstroms)
 Number     Number       Type             X           Y           Z
 ---------------------------------------------------------------------
      1          8           0        0.000000    0.119631    0.000000
      2          1           0        0.754282   -0.478780    0.000000
      3          1           0       -0.754282   -0.478270    0.000000
 ---------------------------------------------------------------------

 SCF Done:  E(RPBE1PBE) =  -76.2763269322     A.U. after    1 cycles

 The electronic state is 1-A'.
 Alpha  occ. eigenvalues --  -19.19291  -1.00711  -0.52647  -0.38256  -0.30541
 Alpha virt. eigenvalues --    0.06383   0.14270   0.57612   0.64376   0.94147
 Alpha virt. eigenvalues --    0.94780   1.03110   1.11199   1.35767   1.40882
 Alpha virt. eigenvalues --    1.55415   1.80408   2.22942   2.27517   2.97815

 Mulliken charges:
               1
     1  O   -0.307596
     2  H    0.153860
     3  H    0.153735
 Sum of Mulliken charges =   0.00000

 Dipole moment (field-independent basis, Debye):
    X=             -0.0002    Y=             -2.0308    Z=              0.0000  Tot=              2.0308
 Quadrupole moment (field-independent basis, Debye-Ang):
   XX=             -4.3011   YY=             -5.9213   ZZ=             -7.0084
   XY=             -0.0007   XZ=              0.0000   YZ=              0.0000

  Exact polarizability:   7.084  -0.002   5.372   0.000   0.000   3.127
 Approx polarizability:   8.317  -0.003   6.404   0.000   0.000   3.240

                      1                      2                      3
                     A'                     A'                     A'
 Frequencies --   1643.3507              3866.8634              3966.9198
 Red. masses --      1.0814                 1.0464                 1.0805
 Frc consts  --      1.7206                 9.2185                10.0181
 IR Inten    --     59.2143                 9.2359                39.1322

 - Thermochemistry -
 -------------------
 Temperature   298.150 Kelvin.  Pressure   1.00000 Atm.
 Atom     1 has atomic number  8 and mass  15.99491

 Molecular mass:    18.01056 amu.
 Principal axes and moments of inertia in atomic units:
                           1         2         3
     Eigenvalues --     2.28716   4.09525   6.38240
           X            1.00000   0.00077   0.00000
           Y           -0.00077   1.00000   0.00000
           Z            0.00000   0.00000   1.00000
 This molecule is an asymmetric top.
 Rotational symmetry number  1.
 Rotational temperatures (Kelvin)     37.86964    21.14985    13.57072
 Rotational constants (GHZ):         789.07624   440.69185   282.76833
 Zero-point vibrational energy      56685.8 (Joules/Mol)
                                   13.54824 (Kcal/Mol)
 Vibrational temperatures:   2364.41  5563.55  5707.51
          (Kelvin)

 Zero-point correction=                           0.021590 (Hartree/Particle)
 Thermal correction to Energy=                    0.024426
 Thermal correction to Enthalpy=                  0.025370
 Thermal correction to Gibbs Free Energy=         0.003285
 Sum of electronic and zero-point Energies=            -76.254736
 Sum of electronic and thermal Energies=               -76.251901
 Sum of electronic and thermal Enthalpies=             -76.250957
 Sum of electronic and thermal Free Energies=          -76.273042

                     E (Thermal)             CV                S
                      KCal/Mol        Cal/Mol-Kelvin    Cal/Mol-Kelvin
 Total                   15.327              6.007             46.482
 Electronic               0.000              0.000              0.000
 Translational            0.889              2.981             34.608
 Rotational               0.889              2.981             11.867
 Vibrational             13.550              0.045              0.006

 Optimization completed.
    -- Stationary point found.
 Normal termination of Gaussian 09 at Thu Mar 26 15:50:27 2015.
