                         Program Version 3.0.3 - RELEASE   -
|  1> %MaxCore 2048
|  2> %pal nprocs 4 end
|  3> ! RKS B3LYP/G def2-svp opt freq
|  4> ! TightSCF freq Grid7 FinalGrid7
|  5>
|  6>
|  7> * xyz 0 1
|  8>  C    -0.332800    -0.096027     0.005036
|  9>  H     0.015341    -1.141451    -0.029479
| 10>  H     0.015790     0.396484    -0.917581
| 11>  H    -1.434482    -0.115788    -0.029742
| 12>  C     0.176431     0.624114     1.252369
| 13>  H     1.278113     0.644160     1.286983
| 14>  H    -0.171978     1.669443     1.287048
| 15>  H    -0.171890     0.131413     2.174986
| 16> *
| 17>
| 18> %output
| 19>        print[P_Hirshfeld] 1
| 20>        print[P_BondOrder_M] 1
| 21>        print[P_Mayer] 1
| 22>  end
| 23>
| 24>
| 25>                          ****END OF INPUT****
 Total Charge           Charge          ....    0
 Multiplicity           Mult            ....    1
 Number of Electrons    NEL             ....   18
FINAL SINGLE POINT ENERGY       -79.771635388363
                    ***********************HURRAY********************

CARTESIAN COORDINATES (ANGSTROEM)
---------------------------------
  C     -0.332797   -0.096023    0.005042
  H      0.015374   -1.141441   -0.029490
  H      0.015766    0.396510   -0.917578
  H     -1.434484   -0.115815   -0.029718
  C      0.176429    0.624110    1.252363
  H      1.278115    0.644126    1.286994
  H     -0.171954    1.669453    1.287024
  H     -0.171923    0.131428    2.174983

 Multiplicity           Mult            ....    1
 Number of Electrons    NEL             ....   18
 Basis Dimension        Dim             ....   58

ORBITAL ENERGIES
----------------

  NO   OCC          E(Eh)            E(eV)
   0   2.0000     -10.178534      -276.9720
   1   2.0000     -10.178506      -276.9712
   2   2.0000      -0.742951       -20.2167
   3   2.0000      -0.606449       -16.5023
   4   2.0000      -0.431669       -11.7463
   5   2.0000      -0.431669       -11.7463
   6   2.0000      -0.370205       -10.0738
   7   2.0000      -0.341160        -9.2834
   8   2.0000      -0.341160        -9.2834
   9   0.0000       0.062935         1.7125
  10   0.0000       0.107888         2.9358
  11   0.0000       0.123357         3.3567
  12   0.0000       0.123357         3.3567
  13   0.0000       0.155924         4.2429

MULLIKEN ATOMIC CHARGES
-----------------------
   0 C :   -0.042824
   1 H :    0.014274
   2 H :    0.014275
   3 H :    0.014275
   4 C :   -0.042824
   5 H :    0.014275
   6 H :    0.014274
   7 H :    0.014275
Sum of atomic charges:   -0.0000000

LOEWDIN ATOMIC CHARGES
----------------------
   0 C :   -0.064437
   1 H :    0.021479
   2 H :    0.021479
   3 H :    0.021479
   4 C :   -0.064437
   5 H :    0.021479
   6 H :    0.021479
   7 H :    0.021479

  Mayer bond orders larger than 0.1
B(  0-C ,  1-H ) :   0.9770 B(  0-C ,  2-H ) :   0.9770 B(  0-C ,  3-H ) :   0.9770
B(  0-C ,  4-C ) :   1.1211 B(  4-C ,  5-H ) :   0.9770 B(  4-C ,  6-H ) :   0.9770
B(  4-C ,  7-H ) :   0.9770

FINAL SINGLE POINT ENERGY       -79.771635388998

DIPOLE MOMENT
-------------
                                X             Y             Z
Electronic contribution:     -0.00000      -0.00000      -0.00000
Nuclear contribution   :      0.00000       0.00000       0.00000
                        -----------------------------------------
Total Dipole Moment    :      0.00000       0.00000       0.00000
                        -----------------------------------------
Magnitude (a.u.)       :      0.00000
Magnitude (Debye)      :      0.00000

VIBRATIONAL FREQUENCIES
-----------------------

   0:         0.00 cm**-1
   1:         0.00 cm**-1
   2:         0.00 cm**-1
   3:         0.00 cm**-1
   4:         0.00 cm**-1
   5:         0.00 cm**-1
   6:       317.65 cm**-1
   7:       821.24 cm**-1
   8:       821.25 cm**-1
   9:      1010.70 cm**-1
  10:      1204.32 cm**-1
  11:      1204.33 cm**-1
  12:      1386.60 cm**-1
  13:      1415.36 cm**-1
  14:      1475.39 cm**-1
  15:      1475.40 cm**-1
  16:      1478.45 cm**-1
  17:      1478.45 cm**-1
  18:      3026.03 cm**-1
  19:      3027.13 cm**-1
  20:      3092.07 cm**-1
  21:      3092.08 cm**-1
  22:      3113.43 cm**-1
  23:      3113.43 cm**-1

IR SPECTRUM
-----------

 Mode    freq (cm**-1)   T**2         TX         TY         TZ
-------------------------------------------------------------------
   6:       317.65    0.000018  (  0.001643  -0.002941   0.002506)
   7:       821.24    4.742676  ( -0.824189   1.873502  -0.743894)
   8:       821.25    4.746113  (  1.879246   0.432607  -1.013607)
   9:      1010.70    0.000000  ( -0.000010   0.000005  -0.000006)
  10:      1204.32    0.000000  (  0.000107   0.000119  -0.000099)
  11:      1204.33    0.000000  (  0.000148  -0.000133   0.000018)
  12:      1386.60    0.001464  ( -0.018494  -0.021519  -0.025674)
  13:      1415.36    0.000000  ( -0.000079   0.000033   0.000001)
  14:      1475.39    0.000015  (  0.001148   0.003022  -0.002240)
  15:      1475.40    0.000012  (  0.003132  -0.001328  -0.000503)
  16:      1478.45    7.820363  ( -2.009981   1.922632  -0.289528)
  17:      1478.45    7.780725  (  1.708453   1.534382  -1.583535)
  18:      3026.03   54.281417  ( -2.457610  -3.473991  -6.014396)
  19:      3027.13    0.000017  (  0.001302   0.001861   0.003423)
  20:      3092.07    0.000000  ( -0.000403  -0.000387   0.000326)
  21:      3092.08    0.000000  (  0.000092   0.000037   0.000148)
  22:      3113.43   56.508844  (  7.086594  -1.188945  -2.208039)
  23:      3113.43   56.475411  (  0.071951  -6.520135   3.736051)

--------------------------
THERMOCHEMISTRY AT 298.15K
--------------------------

Temperature         ... 298.15 K
Pressure            ... 1.00 atm
Total Mass          ... 30.07 AMU

Throughout the following assumptions are being made:
  (1) The electronic state is orbitally nondegenerate
  (2) There are no thermally accessible electronically excited states
  (3) Hindered rotations indicated by low frequency modes) are not
      treated as such but are treated as vibrations and this may
      case some error
  (4) All equations used are the standard statistical mechanics
      equations for an ideal gas
  (5) All vibrations are strinctly harmonic

------------
INNER ENERGY
------------

The inner energy is: U= E(el) + E(ZPE) + E(vib) + E(rot) + E(trans)
    E(el)   - is the total energy from the electronic structure calculation
              = E(kin-el) + E(nuc-el) + E(el-el) + E(nuc-nuc)
    E(ZPE)  - the the zero temperature vibrational energy from the frequency calculation
    E(vib)  - the the finite temperature correction to E(ZPE) due to population
              of excietd vibrational states
    E(rot)  - is the rotational thermal energy
    E(trans)- is the translational thermal energy

Summary of contributions to the inner energy U:
Electronic energy                ...    -79.77163539 Eh
Zero point energy                ...      0.07416192 Eh      46.54 kcal/mol
Thermal vibrational correction   ...      0.00064836 Eh       0.41 kcal/mol
Thermal rotational correction    ...      0.00141627 Eh       0.89 kcal/mol
Thermal translational correction ...      0.00141627 Eh       0.89 kcal/mol
-----------------------------------------------------------------------
Total thermal energy                    -79.69399257 Eh

Summary of corrections to the electronic energy:
(perhaps to be used in another calculation)
Total thermal correction                  0.00348090 Eh       2.18 kcal/mol
Non-thermal (ZPE) correction              0.07416192 Eh      46.54 kcal/mol
-----------------------------------------------------------------------
Total correction                          0.07764281 Eh      48.72 kcal/mol

--------
ENTHALPY
--------

The enthalpy is H = U + kB*T
                kB is Boltzmann's constant
Total free energy                 ...    -79.69399257 Eh
Thermal Enthalpy correction       ...      0.00094421 Eh       0.59 kcal/mol
-----------------------------------------------------------------------
Total Enthalpy                    ...    -79.69304837 Eh

-------
ENTROPY
-------

The entropy contributions are T*S = T*(S(el)+S(vib)+S(rot)+S(trans)
     S(el)   - electronic entropy
     S(vib)  - vibrational entropy
     S(rot)  - rotational entropy
     S(trans)- translational entropy
The entropies will be listed as mutliplied by the temperature to get
units of energy

Electronic entropy                ...      0.00000000 Eh      0.00 kcal/mol
Vibrational entropy               ...      0.00093235 Eh      0.59 kcal/mol
Rotational entropy                ...      0.00840237 Eh      5.27 kcal/mol
Translational entropy             ...      0.01716939 Eh     10.77 kcal/mol
-----------------------------------------------------------------------
Final entropy term                ...      0.02650411 Eh     16.63 kcal/mol

CAUTION: The rotational entropy is not quite correctly treated here
         because it includes a symmetry number that is not yet correctly
         implemented in ORCA!
For a nonlinear molecule the correct rotational entropy is:
    S(rot) = R*(ln(qrot/sn)+1.5)
    R    = 8.31441 J/mol/K = 1.987191683e-3 kcal/mol/K
    qrot = 4903.5760829
    sn is the rotational symmetry number. We have assumed 3 here
       if it is different for your molecule then you should correct
       the printed rotational entropy by manually evaluating the equation
       as given above

For convenience we print out the resulting values for sn=1 - 12:
 sn= 1  qrot/sn=    4903.5761 T*S(rot)=     5.92 kcal/mol T*S(tot)=    17.28 kcal/mol
 sn= 2  qrot/sn=    2451.7880 T*S(rot)=     5.51 kcal/mol T*S(tot)=    16.87 kcal/mol
 sn= 3  qrot/sn=    1634.5254 T*S(rot)=     5.27 kcal/mol T*S(tot)=    16.63 kcal/mol
 sn= 4  qrot/sn=    1225.8940 T*S(rot)=     5.10 kcal/mol T*S(tot)=    16.46 kcal/mol
 sn= 5  qrot/sn=     980.7152 T*S(rot)=     4.97 kcal/mol T*S(tot)=    16.33 kcal/mol
 sn= 6  qrot/sn=     817.2627 T*S(rot)=     4.86 kcal/mol T*S(tot)=    16.22 kcal/mol
 sn= 7  qrot/sn=     700.5109 T*S(rot)=     4.77 kcal/mol T*S(tot)=    16.13 kcal/mol
 sn= 8  qrot/sn=     612.9470 T*S(rot)=     4.69 kcal/mol T*S(tot)=    16.05 kcal/mol
 sn= 9  qrot/sn=     544.8418 T*S(rot)=     4.62 kcal/mol T*S(tot)=    15.98 kcal/mol
 sn=10  qrot/sn=     490.3576 T*S(rot)=     4.56 kcal/mol T*S(tot)=    15.92 kcal/mol
 sn=11  qrot/sn=     445.7796 T*S(rot)=     4.50 kcal/mol T*S(tot)=    15.86 kcal/mol
 sn=12  qrot/sn=     408.6313 T*S(rot)=     4.45 kcal/mol T*S(tot)=    15.81 kcal/mol

-------------------
GIBBS FREE ENTHALPY
-------------------

The Gibbs free enthalpy is G = H - T*S

Total enthalpy                    ...    -79.69304837 Eh
Total entropy correction          ...     -0.02650411 Eh    -16.63 kcal/mol
-----------------------------------------------------------------------
Final Gibbs free enthalpy         ...    -79.71955247 Eh

For completeness - the Gibbs free enthalpy minus the electronic energy
G-E(el)                           ...      0.05208291 Eh     32.68 kcal/mol

                             ****ORCA TERMINATED NORMALLY****
TOTAL RUN TIME: 0 days 0 hours 1 minutes 43 seconds 594 msec
